<?xml version="1.0" encoding="UTF-8"?>

<!-- generated on Mar 21 Apr 16:26:15 2020 by Eclipse SUMO GUI Version 1.4.0
<configuration xmlns:xsi="http://www.w3.org/2001/XMLSchema-instance" xsi:noNamespaceSchemaLocation="http://sumo.dlr.de/xsd/sumoConfiguration.xsd">

    <input>
        <net-file value="demo.net.xml"/>
        <route-files value="demo.rou.xml"/>
        <additional-files value="demo.add.xml"/>
    </input>

    <output>
        <tripinfo-output value="tripinfo.xml"/>
    </output>

    <traci_server>
        <remote-port value="61050"/>
    </traci_server>

</configuration>
-->

<tripinfos xmlns:xsi="http://www.w3.org/2001/XMLSchema-instance" xsi:noNamespaceSchemaLocation="http://sumo.dlr.de/xsd/tripinfo_file.xsd">
    <tripinfo id="1" depart="3.00" departLane="e1_0" departPos="5.10" departSpeed="0.00" departDelay="0.00" arrival="169.00" arrivalLane="e9_0" arrivalPos="93.40" arrivalSpeed="8.11" duration="166.00" routeLength="1352.36" waitingTime="0.00" waitingCount="0" stopTime="0.00" timeLoss="30.52" rerouteNo="5" devices="tripinfo_1" vType="car" speedFactor="0.94" vaporized=""/>
</tripinfos>
